138
1UAO_RHFD3_PCM.log	Energy:   -3800.4919925
N         -6.95762       -2.61173        3.83241
C         -6.90587       -1.36124        3.05042
C         -5.80720       -1.49929        2.00748
O         -5.46327       -2.59858        1.63338
H         -6.04270       -2.73069        4.30225
H         -7.10910       -3.40874        3.23288
H         -7.68288       -2.58693        4.53175
H         -7.85646       -1.20313        2.56157
H         -6.70419       -0.54397        3.72391
N         -5.30729       -0.35179        1.56171
C         -4.19963       -0.24800        0.63041
C         -3.25073        0.79689        1.20988
O         -3.69128        1.88628        1.51699
C         -4.66874        0.16087       -0.77051
C         -3.50748        0.40707       -1.70610
C         -2.76303       -0.65000       -2.22891
C         -3.12247        1.69972       -2.02707
C         -1.67002       -0.42296       -3.04344
C         -2.03741        1.94301       -2.85489
C         -1.30693        0.88071       -3.35736
O         -0.23345        1.05802       -4.16396
H         -5.65621        0.51143        1.91879
H         -3.71145       -1.20618        0.58783
H         -5.30923       -0.62569       -1.14879
H         -5.27114        1.05690       -0.68052
H         -3.04602       -1.66413       -2.00462
H         -3.67137        2.53419       -1.62673
H         -1.09180       -1.23510       -3.44196
H         -1.76366        2.95302       -3.10475
H         -0.11740        1.97592       -4.37734
N         -1.98833        0.41826        1.36455
C         -0.98159        1.26350        1.97439
C         -0.09868        1.80850        0.86008
O          0.60078        1.05354        0.21606
C         -0.17399        0.44814        2.97844
C          0.77675        1.29898        3.81035
O          0.86324        1.05541        5.01407
O          1.41158        2.19166        3.20293
H         -1.68430       -0.47348        1.02719
H         -1.50451        2.05486        2.48000
H         -0.86435       -0.06381        3.63673
H          0.41147       -0.28840        2.44868
N         -0.16206        3.11206        0.57376
C          0.60105        3.64321       -0.53517
C          2.09909        3.75031       -0.27767
O          2.85116        3.86789       -1.22296
C         -0.02742        5.02591       -0.74910
C         -0.42994        5.44764        0.66603
C         -0.89201        4.14173        1.32005
H          0.49677        3.00689       -1.40017
H          0.64694        5.71799       -1.23560
H         -0.90783        4.91546       -1.37362
H          0.42986        5.84279        1.19481
H         -1.20553        6.20220        0.67655
H         -0.63136        4.10375        2.36854
H         -1.95756        3.98705        1.21576
N          2.50333        3.76015        0.99450
C          3.91069        3.76308        1.33814
C          4.56023        2.41275        1.05032
O          5.66575        2.35468        0.56031
C          4.06872        4.19038        2.80224
C          5.48655        4.59334        3.19179
C          6.49154        3.47723        3.51394
O          6.05327        2.36368        3.82568
O          7.68438        3.83193        3.50363
H          1.87289        3.43010        1.69884
H          4.41330        4.46865        0.69421
H          3.41526        5.04841        2.93300
H          3.69942        3.40490        3.44591
H          5.92275        5.24013        2.43699
H          5.43201        5.19359        4.09861
N          3.82187        1.32841        1.33030
C          4.31005        0.00552        1.06876
C          3.91669       -0.52218       -0.30344
O          4.35336       -1.59944       -0.68328
C          3.85627       -1.00261        2.13426
O          2.46437       -1.19197        2.06592
C          4.20469       -0.53130        3.53636
H          2.94666        1.43504        1.80612
H          5.38987        0.03417        1.06659
H          4.36792       -1.93344        1.92081
H          2.25085       -1.99102        1.59662
H          5.22500       -0.17606        3.59531
H          4.06144       -1.34831        4.23608
H          3.55231        0.28204        3.82052
N          3.09705        0.21440       -1.04147
C          2.65741       -0.20993       -2.34342
C          1.85988       -1.50152       -2.37454
O          1.83897       -2.15795       -3.39267
H          2.60589        0.95663       -0.59615
H          2.03785        0.56993       -2.76531
H          3.50233       -0.36626       -2.99790
N          1.22067       -1.85657       -1.25613
C          0.65911       -3.16899       -1.09391
C         -0.55126       -3.10715       -0.17899
O         -0.71592       -2.21735        0.62621
C          1.70296       -4.17039       -0.51307
O          2.51434       -3.53979        0.44703
C          2.56993       -4.80257       -1.59527
H          1.15457       -1.21636       -0.49084
H          0.33665       -3.52543       -2.06177
H          1.17030       -4.94718        0.01858
H          3.17915       -3.02058       -0.00164
H          1.96662       -5.33435       -2.32203
H          3.25771       -5.50420       -1.13650
H          3.14210       -4.04760       -2.11947
N         -1.39677       -4.13013       -0.31016
C         -2.52899       -4.31931        0.56218
C         -2.07423       -4.48476        2.01069
O         -1.06082       -5.09387        2.27968
C         -3.31332       -5.58022        0.14570
C         -3.66040       -5.60711       -1.31387
C         -3.15419       -6.45480       -2.24098
C         -4.54733       -4.71405       -2.02835
N         -3.65180       -6.15990       -3.48250
C         -4.50867       -5.09851       -3.37685
C         -5.37120       -3.64867       -1.64348
C         -5.25766       -4.44562       -4.35643
C         -6.11142       -2.99992       -2.60659
C         -6.04906       -3.39351       -3.95451
H         -1.23288       -4.81287       -1.01444
H         -3.18058       -3.46288        0.48507
H         -2.71963       -6.45432        0.39229
H         -4.21019       -5.61786        0.75553
H         -2.46636       -7.26574       -2.11249
H         -3.44460       -6.66233       -4.31532
H         -5.43326       -3.34887       -0.61437
H         -5.21497       -4.75376       -5.38601
H         -6.75497       -2.18454       -2.32805
H         -6.63831       -2.86608       -4.68328
N         -2.89616       -3.97773        2.92586
C         -2.64774       -4.12035        4.34212
C         -3.64724       -3.33784        5.19584
O         -3.59908       -3.54790        6.40291
O         -4.41070       -2.54492        4.60174
H         -3.69197       -3.44051        2.65404
H         -2.69573       -5.16142        4.63546
H         -1.65167       -3.76926        4.58543
