304
Energy:   -7440.7348957
N         -9.36551        4.32855       -1.08593
C         -8.69344        3.32485       -1.96118
C         -7.17959        3.24827       -1.76421
O         -6.68086        2.16214       -1.60186
C         -9.02288        3.61247       -3.42689
C        -10.50578        3.44218       -3.71390
O        -11.31503        3.43329       -2.80721
N        -10.83401        3.33116       -4.99455
H         -9.21287        4.16285       -0.09980
H         -9.11489        5.28634       -1.27441
H        -10.36502        4.23448       -1.24890
H         -9.08604        2.36621       -1.66646
H         -8.74177        4.62424       -3.69820
H         -8.43950        2.94838       -4.05124
H        -10.15414        3.33140       -5.72203
H        -11.79595        3.25827       -5.24832
N         -6.45481        4.37274       -1.83714
C         -5.01646        4.30995       -2.09296
C         -4.25744        3.51113       -1.03766
O         -3.41742        2.71337       -1.38485
C         -4.45267        5.72709       -2.30109
C         -4.74488        6.77581       -1.19655
C         -3.54037        7.04451       -0.29097
C         -5.20588        8.09551       -1.82460
H         -6.90826        5.22368       -2.08624
H         -4.85492        3.74854       -3.00272
H         -3.38493        5.63056       -2.46444
H         -4.86224        6.06875       -3.24617
H         -5.55548        6.41626       -0.56913
H         -3.12435        6.14000        0.13470
H         -2.75538        7.54980       -0.84056
H         -3.82915        7.69477        0.52701
H         -4.43422        8.49536       -2.47580
H         -6.10642        7.96793       -2.41712
H         -5.41200        8.83437       -1.05776
N         -4.50892        3.73480        0.26024
C         -3.69041        3.07828        1.25945
C         -3.99881        1.58933        1.36151
O         -3.11313        0.79455        1.58450
C         -3.82557        3.78547        2.61575
C         -2.75071        3.37180        3.59444
C         -3.01117        2.47486        4.62167
C         -1.46380        3.88683        3.47913
C         -2.02701        2.11333        5.52464
C         -0.46837        3.52831        4.37119
C         -0.75420        2.64608        5.40308
O          0.16881        2.27648        6.32203
H         -5.17544        4.42324        0.53084
H         -2.66034        3.12214        0.94119
H         -3.74960        4.85199        2.42996
H         -4.81264        3.60599        3.02875
H         -3.99684        2.05628        4.73036
H         -1.22585        4.58601        2.69469
H         -2.23339        1.43303        6.32859
H          0.52067        3.93634        4.26827
H          0.99492        2.71971        6.17105
N         -5.27561        1.21334        1.21920
C         -5.64626       -0.18566        1.20225
C         -5.02394       -0.92014        0.01682
O         -4.66024       -2.07195        0.13284
C         -7.17999       -0.33283        1.23217
C         -7.79108        0.35273        2.47186
C         -7.59999       -1.80490        1.14086
C         -7.25046       -0.11453        3.82417
H         -5.92636        1.87712        0.86462
H         -5.21683       -0.66390        2.06867
H         -7.56968        0.17816        0.35383
H         -7.65167        1.42547        2.41002
H         -8.86315        0.18747        2.43461
H         -7.33370       -2.24226        0.18692
H         -7.13188       -2.40267        1.91455
H         -8.67512       -1.88616        1.25484
H         -7.31043       -1.19063        3.94327
H         -6.21623        0.18307        3.95966
H         -7.82186        0.33699        4.62825
N         -4.89323       -0.24321       -1.12285
C         -4.26327       -0.83343       -2.28231
C         -2.81827       -1.22468       -1.98206
O         -2.33369       -2.23709       -2.44215
C         -4.31562        0.17231       -3.44201
C         -4.10602       -0.47089       -4.82257
C         -5.36392       -1.19415       -5.24532
O         -5.61301       -2.32351       -4.84975
N         -6.20709       -0.52062       -6.02100
H         -5.24550        0.68588       -1.19032
H         -4.77018       -1.74778       -2.54729
H         -5.27942        0.66835       -3.42332
H         -3.57565        0.94492       -3.28307
H         -3.84940        0.29697       -5.54050
H         -3.29447       -1.18655       -4.79040
H         -6.01292        0.40077       -6.34294
H         -7.07347       -0.93766       -6.28596
N         -2.12060       -0.37987       -1.22158
C         -0.76755       -0.66352       -0.80786
C         -0.69652       -1.80005        0.21015
O          0.18562       -2.63280        0.13685
C         -0.14663        0.62787       -0.26556
C          1.27784        0.47854        0.17482
C          2.37815        0.36712       -0.61124
C          1.75451        0.44880        1.53572
N          3.50260        0.25998        0.15315
C          3.15268        0.33089        1.46862
C          1.13414        0.55616        2.78695
C          3.95367        0.35208        2.60959
C          1.92030        0.55727        3.91870
C          3.32190        0.46847        3.82696
H         -2.56273        0.44696       -0.88362
H         -0.20116       -1.01343       -1.65648
H         -0.23070        1.36307       -1.05762
H         -0.75007        0.98802        0.55946
H          2.45001        0.36724       -1.67940
H          4.44272        0.26355       -0.18477
H          0.06600        0.65018        2.86782
H          5.02202        0.28098        2.52921
H          1.45882        0.63437        4.88427
H          3.90824        0.49845        4.72734
N         -1.63192       -1.84335        1.15943
C         -1.67065       -2.94365        2.09374
C         -1.89091       -4.28472        1.39887
O         -1.25150       -5.25328        1.76280
C         -2.73932       -2.73810        3.16821
C         -2.50520       -1.54414        4.10936
C         -3.65317       -1.48191        5.12107
C         -1.16088       -1.62901        4.83704
H         -2.33470       -1.13631        1.19376
H         -0.70218       -3.05331        2.55253
H         -3.70314       -2.63998        2.67979
H         -2.77850       -3.64866        3.76015
H         -2.51945       -0.62906        3.52849
H         -4.61778       -1.44681        4.62665
H         -3.64736       -2.35507        5.76837
H         -3.57060       -0.60261        5.75069
H         -1.07750       -2.55948        5.39393
H         -0.32321       -1.56758        4.15457
H         -1.05630       -0.80745        5.53770
N         -2.79220       -4.36618        0.41585
C         -3.01106       -5.64622       -0.23338
C         -1.78875       -6.08451       -1.04396
O         -1.58355       -7.26023       -1.24886
C         -4.31028       -5.66640       -1.06164
C         -4.25150       -4.96271       -2.42609
C         -3.71425       -5.87703       -3.54158
C         -3.07097       -5.13622       -4.70464
N         -4.08829       -4.53602       -5.62321
H         -3.34640       -3.56761        0.17705
H         -3.09949       -6.39936        0.53561
H         -4.59196       -6.70468       -1.19719
H         -5.07901       -5.21509       -0.44427
H         -5.24648       -4.61855       -2.68729
H         -3.63778       -4.07950       -2.35197
H         -2.95429       -6.53987       -3.15740
H         -4.50363       -6.52895       -3.90729
H         -2.45564       -4.32038       -4.35573
H         -2.46141       -5.79543       -5.30238
H         -4.76125       -5.22172       -5.93319
H         -4.60778       -3.77108       -5.19032
H         -3.63846       -4.15656       -6.44323
N         -0.99882       -5.10968       -1.50391
C          0.25218       -5.31452       -2.19966
C          1.40616       -5.72532       -1.28784
O          2.51131       -5.89145       -1.76710
C          0.60877       -4.02790       -2.95085
C          1.50318       -4.16850       -4.17736
O          1.68664       -5.28486       -4.67596
O          1.96144       -3.09745       -4.61482
H         -1.23538       -4.16979       -1.28014
H          0.14249       -6.12560       -2.90356
H         -0.30944       -3.56649       -3.29638
H          1.05780       -3.31206       -2.27590
N          1.15335       -5.90473        0.00811
C          2.13195       -6.39598        0.93737
C          2.56433       -5.42605        2.01330
O          3.32633       -5.82028        2.87782
H          0.24082       -5.73043        0.36640
H          1.75480       -7.27142        1.45034
H          3.02228       -6.68708        0.40220
N          2.11337       -4.17730        1.98388
C          2.53295       -3.26482        3.01125
C          4.03697       -3.05005        2.95313
O          4.61401       -3.01967        1.88585
H          1.49455       -3.85949        1.26721
H          2.05513       -2.30938        2.84043
H          2.22914       -3.63441        3.97866
N          4.71188       -2.94223        4.10149
C          6.15954       -2.80630        4.06665
C          6.88058       -3.93001        3.33715
O          7.93838       -3.70995        2.78397
C          6.54647       -2.75666        5.55298
C          5.31200       -2.13947        6.21175
C          4.15130       -2.77014        5.44549
H          6.43942       -1.89663        3.55351
H          6.70441       -3.76230        5.92874
H          7.45307       -2.18953        5.71218
H          5.25757       -2.33292        7.27463
H          5.31106       -1.06521        6.06230
H          3.86992       -3.72873        5.86539
H          3.28090       -2.13126        5.41899
N          6.33219       -5.14833        3.38234
C          6.92650       -6.26858        2.69428
C          6.87750       -6.17222        1.17149
O          7.55218       -6.92570        0.50589
C          6.25045       -7.57356        3.12518
O          6.30193       -7.75838        4.51247
H          5.39480       -5.24908        3.70729
H          7.97876       -6.31158        2.94060
H          5.20362       -7.54189        2.85903
H          6.71976       -8.39352        2.59561
H          7.20222       -7.89143        4.78434
N          6.08091       -5.24586        0.63520
C          6.05662       -4.99081       -0.78323
C          7.37437       -4.43682       -1.30394
O          7.65341       -4.50897       -2.48039
C          4.92639       -3.98632       -1.09116
O          4.52702       -4.05129       -2.42008
H          5.55584       -4.63895        1.22804
H          5.86667       -5.90523       -1.32614
H          4.09767       -4.18529       -0.43029
H          5.25901       -2.97731       -0.88055
H          3.84399       -4.71349       -2.49058
N          8.16130       -3.78863       -0.43104
C          9.41121       -3.22633       -0.87474
C          9.27010       -1.96230       -1.70680
O         10.14864       -1.63573       -2.47285
H          7.95894       -3.80675        0.54568
H         10.00452       -2.97597       -0.00484
H          9.96572       -3.93435       -1.47228
N          8.16655       -1.24250       -1.49593
C          7.88146       -0.00739       -2.18208
C          7.10360        0.86815       -1.20456
O          6.36524        0.34791       -0.38551
C          7.14512       -0.23107       -3.51971
C          6.03631       -1.28543       -3.49065
C          5.51507       -1.54042       -4.91159
N          4.73914       -2.76169       -5.06129
C          5.25463       -3.96120       -5.19423
N          6.58976       -4.13766       -5.23547
N          4.47016       -5.00765       -5.40932
H          7.48552       -1.56947       -0.84914
H          8.82758        0.46202       -2.40038
H          6.75474        0.71440       -3.88364
H          7.90367       -0.54668       -4.22927
H          6.42058       -2.20751       -3.08109
H          5.22010       -0.98230       -2.84341
H          4.87740       -0.72734       -5.22988
H          6.34140       -1.57941       -5.61082
H          3.74691       -2.73771       -4.87916
H          7.12592       -3.59843       -4.59092
H          6.89722       -5.08652       -5.23719
H          3.47013       -4.95178       -5.28753
H          4.85808       -5.91748       -5.29603
N          7.29389        2.18349       -1.24945
C          6.75728        3.03914       -0.20378
C          5.25649        3.26495       -0.34413
O          4.68649        3.10475       -1.40010
C          7.51735        4.36232       -0.41292
C          7.78148        4.37256       -1.91794
C          8.11760        2.91573       -2.21848
H          6.96769        2.59390        0.75638
H          6.95464        5.22199       -0.07560
H          8.45066        4.33051        0.13800
H          6.88308        4.65926       -2.45093
H          8.58117        5.04257       -2.20462
H          7.87002        2.63735       -3.23199
H          9.16907        2.71343       -2.04688
N          4.62409        3.70349        0.75087
C          3.19298        3.89709        0.71207
C          2.78054        5.18425        0.03138
O          3.45200        6.18900        0.11439
C          2.79536        3.99588        2.19459
C          4.05031        4.57152        2.85248
C          5.19216        3.90740        2.08505
H          2.74087        3.04880        0.23202
H          1.91819        4.61390        2.33326
H          2.58410        3.00672        2.57450
H          4.08769        5.64357        2.70773
H          4.10448        4.36349        3.91364
H          6.07472        4.53011        2.05017
H          5.45658        2.95510        2.52962
N          1.58908        5.16614       -0.58209
C          0.92538        6.39993       -0.92516
C          0.29722        7.01706        0.32422
O          0.16515        6.36621        1.34762
C         -0.15375        5.92523       -1.90514
C         -0.59727        4.59956       -1.28342
C          0.69273        4.01349       -0.69492
H          1.61483        7.10147       -1.36959
H         -0.95778        6.63680       -2.03004
H          0.30570        5.76212       -2.87314
H         -1.30359        4.78778       -0.48685
H         -1.06945        3.92906       -1.98725
H          0.51258        3.55562        0.26818
H          1.13354        3.27406       -1.34917
N         -0.11588        8.27149        0.20211
C         -0.95955        8.95954        1.16760
C         -1.70953       10.11203        0.45501
O         -1.45032       10.30110       -0.73982
C         -0.17649        9.46129        2.37952
O          0.15522        8.43517        3.28483
O         -2.50814       10.72333        1.16783
H         -0.05588        8.73288       -0.68046
H         -1.71027        8.26929        1.52928
H          0.72143        9.96991        2.03487
H         -0.78785       10.17237        2.91412
H          0.26498        7.61875        2.80484
