304
1L2Y_RHFD3_2.log	Energy:   -7440.5346126
N         -9.38796        2.64949       -1.92167
C         -8.54693        3.87989       -2.01997
C         -7.10302        3.41316       -2.22792
O         -6.85447        2.23729       -2.08915
C         -8.69525        4.72853       -0.74766
C        -10.14240        5.15331       -0.51616
O        -11.04503        4.46619       -0.94188
N        -10.33225        6.26651        0.17938
H         -9.38537        2.12759       -2.78602
H         -9.03267        2.02470       -1.21144
H        -10.33688        2.94580       -1.68034
H         -8.90722        4.43034       -2.87890
H         -8.36344        4.16166        0.11890
H         -8.04486        5.59009       -0.82414
H         -9.58877        6.84402        0.50311
H        -11.26808        6.55158        0.37772
N         -6.22108        4.36192       -2.48980
C         -4.77807        4.14182       -2.62613
C         -4.22646        3.24538       -1.52054
O         -3.47667        2.34408       -1.79678
C         -4.08194        5.51512       -2.69238
C         -4.41738        6.52251       -1.55641
C         -3.30935        6.59493       -0.50467
C         -4.69107        7.91035       -2.14793
H         -6.54014        5.29208       -2.65181
H         -4.59104        3.59486       -3.53920
H         -3.01331        5.34363       -2.74014
H         -4.35446        5.94214       -3.65294
H         -5.33652        6.20029       -1.05432
H         -3.09551        5.64020       -0.04751
H         -2.40511        6.95021       -0.96786
H         -3.56923        7.30481        0.26846
H         -3.81249        8.28551       -2.65619
H         -5.52805        7.87315       -2.84804
H         -4.90190        8.63017       -1.37018
N         -4.60740        3.49017       -0.24966
C         -3.87971        2.83633        0.83094
C         -4.24559        1.36633        0.91867
O         -3.46641        0.55497        1.35214
C         -4.15717        3.54889        2.17565
C         -2.95538        3.54574        3.08767
C         -2.75830        2.55115        4.03674
C         -1.99533        4.54073        2.95934
C         -1.63360        2.54637        4.83965
C         -0.87035        4.55271        3.76121
C         -0.68253        3.54830        4.69784
O          0.40308        3.49570        5.49592
H         -4.97738        4.39326       -0.05855
H         -2.82123        2.86881        0.62095
H         -4.42055        4.58027        1.96212
H         -5.02119        3.10185        2.65842
H         -3.48567        1.76829        4.14818
H         -2.09810        5.32421        2.23060
H         -1.48164        1.78318        5.57892
H         -0.15441        5.34351        3.63958
H          0.99275        4.21383        5.30866
N         -5.49417        1.04155        0.53877
C         -5.94168       -0.33145        0.50944
C         -5.14846       -1.16480       -0.49507
O         -4.80192       -2.28653       -0.21808
C         -7.45076       -0.40141        0.19914
C         -8.27649        0.53521        1.10476
C         -7.95330       -1.84869        0.27194
C         -8.09280        0.33498        2.60986
H         -5.99035        1.71494        0.00484
H         -5.73902       -0.78174        1.46890
H         -7.57941       -0.05815       -0.82640
H         -8.03789        1.57375        0.87172
H         -9.32680        0.39616        0.85330
H         -7.47155       -2.47470       -0.46776
H         -7.75756       -2.28866        1.24244
H         -9.02288       -1.88589        0.09508
H         -8.31986       -0.68154        2.90743
H         -7.07704        0.55815        2.91551
H         -8.75436        0.99236        3.16303
N         -4.89637       -0.59785       -1.68397
C         -4.06227       -1.25304       -2.67514
C         -2.70776       -1.62689       -2.08271
O         -2.23989       -2.73204       -2.25411
C         -3.93378       -0.33871       -3.90945
C         -2.70305       -0.58356       -4.78249
C         -2.56373       -2.01001       -5.27584
O         -3.53926       -2.73651       -5.34627
N         -1.34048       -2.37219       -5.65354
H         -5.10693        0.36619       -1.81129
H         -4.51209       -2.18798       -2.96443
H         -4.83211       -0.46342       -4.50080
H         -3.88813        0.69133       -3.57951
H         -2.76610        0.05318       -5.65997
H         -1.80074       -0.28781       -4.25908
H         -0.54391       -1.91211       -5.26604
H         -1.15431       -3.34926       -5.75855
N         -2.05924       -0.68041       -1.40795
C         -0.74558       -0.92578       -0.84642
C         -0.77411       -2.00613        0.22906
O          0.07796       -2.86697        0.25807
C         -0.20330        0.39176       -0.28431
C          1.16017        0.26031        0.32234
C          2.32850        0.06963       -0.33846
C          1.49703        0.32354        1.72245
N          3.37170        0.02461        0.53514
C          2.89283        0.20218        1.79914
C          0.75918        0.49603        2.90100
C          3.57917        0.29841        3.00734
C          1.43038        0.56177        4.10032
C          2.83386        0.47571        4.14984
H         -2.47892        0.21679       -1.29349
H         -0.09364       -1.31157       -1.61813
H         -0.19383        1.11247       -1.09698
H         -0.89881        0.77007        0.45685
H          2.48947       -0.04918       -1.38824
H          4.33978       -0.03224        0.29557
H         -0.31019        0.59896        2.87292
H          4.65011        0.24163        3.02418
H          0.88448        0.71830        5.01031
H          3.33026        0.56126        5.10010
N         -1.75545       -1.95850        1.13072
C         -1.81777       -2.95604        2.17451
C         -1.94426       -4.36695        1.60592
O         -1.26664       -5.25917        2.06013
C         -2.97295       -2.65890        3.13170
C         -2.76414       -1.42190        4.02255
C         -4.07529       -1.08877        4.73975
C         -1.63509       -1.63096        5.03570
H         -2.44284       -1.23742        1.08878
H         -0.87746       -2.97670        2.70342
H         -3.87940       -2.54753        2.54327
H         -3.11616       -3.52874        3.76673
H         -2.50625       -0.57643        3.39542
H         -4.85773       -0.83716        4.02855
H         -4.42191       -1.93047        5.33324
H         -3.95237       -0.24550        5.41186
H         -1.83307       -2.49243        5.66761
H         -0.67578       -1.77750        4.55448
H         -1.53698       -0.76359        5.68041
N         -2.83531       -4.56997        0.62396
C         -3.02096       -5.89811        0.07732
C         -1.91627       -6.35423       -0.87849
O         -1.91316       -7.50220       -1.24742
C         -4.42455       -6.11227       -0.50628
C         -4.86695       -5.16694       -1.64561
C         -5.01626       -5.81317       -3.03072
C         -3.71318       -6.24356       -3.69484
N         -2.83221       -5.07174       -3.91964
H         -3.35679       -3.79788        0.26722
H         -2.91482       -6.59667        0.89580
H         -4.47261       -7.14597       -0.82582
H         -5.11632       -6.01264        0.32251
H         -5.82928       -4.74181       -1.38522
H         -4.20747       -4.31557       -1.70517
H         -5.65587       -6.68733       -2.96007
H         -5.52229       -5.11132       -3.69034
H         -3.17071       -6.95953       -3.10091
H         -3.90462       -6.68376       -4.66385
H         -3.19303       -4.43851       -4.62783
H         -2.70997       -4.48680       -3.10483
H         -1.86464       -5.28882       -4.17563
N         -0.97899       -5.47012       -1.25208
C          0.25673       -5.89740       -1.87659
C          1.19269       -6.64567       -0.92770
O          2.12019       -7.27001       -1.39239
C          1.04323       -4.68939       -2.39213
C          0.54306       -4.04353       -3.67886
O         -0.24654       -4.67810       -4.39350
O          1.04763       -2.93722       -3.95113
H         -1.01531       -4.54166       -0.89692
H          0.04115       -6.57447       -2.68669
H          1.13234       -3.93262       -1.62512
H          2.04263       -5.02124       -2.62159
N          1.00799       -6.48835        0.38789
C          1.98290       -6.90772        1.36044
C          2.71875       -5.76295        2.03526
O          3.69178       -5.98825        2.72212
H          0.17775       -6.05690        0.73000
H          1.50699       -7.47274        2.15310
H          2.71519       -7.54378        0.89124
N          2.22893       -4.52801        1.89172
C          2.80646       -3.45921        2.64807
C          4.24190       -3.17885        2.22756
O          4.59335       -3.29635        1.07456
H          1.46728       -4.32784        1.28380
H          2.23179       -2.56048        2.46595
H          2.75339       -3.69315        3.70012
N          5.10773       -2.80070        3.18247
C          6.49575       -2.55221        2.82872
C          7.19253       -3.73724        2.18697
O          8.09341       -3.55069        1.39748
C          7.16369       -2.21297        4.17464
C          6.00786       -1.72958        5.05179
C          4.83444       -2.59692        4.60451
H          6.56382       -1.73830        2.12013
H          7.60036       -3.10739        4.60609
H          7.95269       -1.48337        4.05466
H          6.21309       -1.82933        6.11015
H          5.79071       -0.68661        4.85013
H          4.82025       -3.54792        5.12816
H          3.88723       -2.10237        4.75177
N          6.81056       -4.95241        2.58662
C          7.42029       -6.15808        2.08029
C          7.20890       -6.39527        0.58856
O          7.90397       -7.18712        0.01157
C          6.88776       -7.36395        2.85961
O          7.11117       -7.22463        4.23427
H          5.98921       -5.05189        3.14201
H          8.49414       -6.08952        2.20077
H          5.81703       -7.43454        2.72973
H          7.34662       -8.26125        2.46085
H          8.03450       -7.33072        4.42053
N          6.22627       -5.69601       -0.00340
C          6.00865       -5.73996       -1.42229
C          6.91830       -4.81854       -2.22235
O          6.79296       -4.76803       -3.43038
C          4.54800       -5.38919       -1.72717
O          4.11023       -6.00459       -2.90194
H          5.69763       -5.04055        0.53036
H          6.20541       -6.73903       -1.78207
H          3.94416       -5.69813       -0.89158
H          4.43097       -4.31603       -1.82483
H          3.52086       -6.71470       -2.66258
N          7.79780       -4.06909       -1.55438
C          8.77758       -3.27176       -2.24066
C          8.37716       -1.83687       -2.53475
O          8.73493       -1.31598       -3.56333
H          7.85930       -4.13834       -0.56103
H          9.67204       -3.22639       -1.62986
H          9.02955       -3.72124       -3.18721
N          7.67055       -1.16441       -1.60742
C          7.49450        0.26431       -1.76376
C          7.04883        0.88722       -0.45522
O          6.35500        0.25890        0.32364
C          6.46582        0.63557       -2.85519
C          5.07126        0.04189       -2.63218
C          4.24640       -0.09267       -3.93663
N          3.75016       -1.44039       -4.19116
C          4.52664       -2.49465       -4.41784
N          5.83822       -2.37712       -4.55620
N          3.96485       -3.68256       -4.54430
H          7.37002       -1.60740       -0.76563
H          8.44700        0.67252       -2.06735
H          6.37812        1.71362       -2.91222
H          6.89734        0.31271       -3.79301
H          5.15192       -0.93257       -2.16629
H          4.55261        0.68428       -1.93785
H          3.37179        0.54111       -3.90339
H          4.81967        0.23664       -4.79657
H          2.77962       -1.64729       -4.04941
H          6.31172       -1.51877       -4.40622
H          6.40055       -3.20465       -4.48081
H          2.98118       -3.74886       -4.38594
H          4.50313       -4.51771       -4.42485
N          7.39442        2.15725       -0.23129
C          6.71839        2.90493        0.81224
C          5.24326        3.07708        0.45354
O          4.85019        2.88159       -0.67497
C          7.43243        4.26773        0.79603
C          7.82302        4.42752       -0.67155
C          8.21986        3.01526       -1.09101
H          6.80977        2.39425        1.75924
H          6.80054        5.07342        1.14249
H          8.31292        4.22200        1.42845
H          6.96244        4.75091       -1.24458
H          8.62344        5.14001       -0.82315
H          8.02789        2.84615       -2.13796
H          9.26932        2.81967       -0.89941
N          4.43087        3.49332        1.42649
C          3.04001        3.72377        1.11535
C          2.82791        4.99723        0.32239
O          3.54810        5.95162        0.47054
C          2.38273        3.90894        2.48885
C          3.51605        4.47972        3.34444
C          4.76090        3.76033        2.82370
H          2.65208        2.86867        0.59171
H          1.52960        4.56636        2.42375
H          2.05548        2.95430        2.87331
H          3.61268        5.54379        3.17313
H          3.37386        4.30772        4.40578
H          5.64671        4.37120        2.91803
H          4.92539        2.82862        3.35310
N          1.73727        5.01947       -0.46376
C          1.21865        6.27524       -0.95050
C          0.44005        7.00605        0.14431
O         -0.00053        6.40038        1.09794
C          0.24587        5.83015       -2.05263
C         -0.34260        4.53851       -1.47087
C          0.81255        3.91213       -0.67738
H          2.01857        6.89685       -1.32299
H         -0.49229        6.58830       -2.28198
H          0.81168        5.61710       -2.95345
H         -1.14671        4.77781       -0.79119
H         -0.73014        3.86466       -2.22762
H          0.45904        3.49815        0.25856
H          1.30590        3.12356       -1.23357
N          0.25184        8.31044       -0.09165
C         -0.87353        9.06129        0.45840
C         -1.92492        9.34319       -0.64658
O         -1.61003        9.01015       -1.80049
C         -0.37779       10.34604        1.10680
O          0.52208       10.08947        2.15082
O         -2.97313        9.83044       -0.23517
H          0.45972        8.60373       -1.02349
H         -1.33051        8.45329        1.22434
H          0.07814       10.98545        0.35120
H         -1.22001       10.87398        1.52628
H          1.21317        9.53403        1.81305
